{
  "metadata": {
    "id": "U4AOS2-12-MedicinesFromNature",
    "curriculum": "VCEAU",
    "subject": "chemistry",
    "dotPoint": "Extraction and purification of organic compounds from natural sources",
    "colorTheme": {
      "primary": "#a855f7",
      "secondary": "#7c3aed"
    }
  },
  "tabs": [
    {
      "id": "extraction",
      "label": "Extraction",
      "icon": "flask",
      "order": 1
    },
    {
      "id": "purification",
      "label": "Purification",
      "icon": "filter",
      "order": 2
    },
    {
      "id": "natural-medicines",
      "label": "Natural Medicines",
      "icon": "leaf",
      "order": 3
    }
  ],
  "concepts": {
    "solvent-extraction": {
      "name": "Solvent Extraction",
      "formula": null,
      "correct": "Solvent extraction separates compounds based on their different solubilities in immiscible solvents",
      "wrong": {
        "based on boiling point": {
          "error": "Describing distillation, not extraction",
          "fix": "Extraction uses solubility differences; distillation uses boiling point differences",
          "action": "Extraction = solubility; distillation = volatility"
        },
        "uses miscible solvents": {
          "error": "Extraction requires immiscible layers",
          "fix": "Solvents must be immiscible (form separate layers) for extraction to work",
          "action": "Common pair: aqueous and organic (e.g., water and dichloromethane)"
        },
        "removes all compounds equally": {
          "error": "Missing selectivity principle",
          "fix": "Different compounds partition differently between solvents based on polarity",
          "action": "Like dissolves like: polar compounds prefer aqueous layer"
        }
      },
      "persistent": {
        "gap": "Not understanding extraction as polarity-based separation",
        "action": "Polar compounds go to water; non-polar compounds go to organic solvent"
      }
    },
    "partition-coefficient": {
      "name": "Partition Coefficient",
      "formula": "K = [compound]organic / [compound]aqueous",
      "correct": "Partition coefficient describes how a compound distributes between two immiscible solvents",
      "wrong": {
        "always equals 1": {
          "error": "Missing the variable nature of K",
          "fix": "K varies for each compound depending on its polarity and the solvents used",
          "action": "K > 1 means compound prefers organic; K < 1 means prefers aqueous"
        },
        "indicates boiling point": {
          "error": "Confusing with distillation concepts",
          "fix": "Partition coefficient relates to solubility distribution, not boiling point",
          "action": "K describes WHERE compound goes, not when it boils"
        },
        "only applies to pure compounds": {
          "error": "Missing mixture application",
          "fix": "Each compound in a mixture has its own K value",
          "action": "Different K values allow separation of mixture components"
        }
      },
      "persistent": {
        "gap": "Not using K to predict extraction behaviour",
        "action": "Higher K = better extraction into organic layer"
      }
    },
    "separating-funnel": {
      "name": "Separating Funnel",
      "formula": null,
      "correct": "A separating funnel allows physical separation of immiscible liquid layers",
      "wrong": {
        "mixes the layers permanently": {
          "error": "Opposite function - it separates layers",
          "fix": "Separating funnel allows layers to settle and be drained separately",
          "action": "Shake to equilibrate, settle to separate, drain to collect"
        },
        "the denser layer is always on top": {
          "error": "Density determines layer position",
          "fix": "Denser layer sinks to bottom; drain bottom layer first via stopcock",
          "action": "Water (d=1.0) sinks below most organic solvents but floats on DCM"
        },
        "requires heating": {
          "error": "Extraction typically done at room temperature",
          "fix": "Separating funnel technique uses room temperature shaking and settling",
          "action": "No heat needed; just shake, vent, settle, and drain"
        }
      },
      "persistent": {
        "gap": "Not understanding separating funnel technique",
        "action": "Add mixture, shake, let layers separate, drain lower layer through stopcock"
      }
    },
    "crystallisation": {
      "name": "Recrystallisation",
      "formula": null,
      "correct": "Recrystallisation purifies solids by dissolving in hot solvent and crystallising on cooling",
      "wrong": {
        "uses cold solvent first": {
          "error": "Wrong temperature sequence",
          "fix": "Dissolve in minimum hot solvent, then cool to crystallise pure compound",
          "action": "Hot to dissolve all, cool to crystallise pure product"
        },
        "impurities crystallise out": {
          "error": "Reversed principle",
          "fix": "Impurities stay dissolved; pure product crystallises",
          "action": "Impurities remain in mother liquor; crystals are filtered"
        },
        "any solvent works equally well": {
          "error": "Missing solvent selection criteria",
          "fix": "Ideal solvent: compound soluble hot, insoluble cold; impurities always soluble",
          "action": "Choose solvent where product solubility changes greatly with temperature"
        }
      },
      "persistent": {
        "gap": "Not understanding recrystallisation principle",
        "action": "Dissolve hot (small volume), filter hot, cool slowly for pure crystals"
      }
    },
    "chromatography": {
      "name": "Chromatography",
      "formula": null,
      "correct": "Chromatography separates compounds based on differential movement through stationary and mobile phases",
      "wrong": {
        "only works for coloured compounds": {
          "error": "Name suggests colour but not limited to it",
          "fix": "Works for any compound; colourless compounds detected by UV or staining",
          "action": "'Chromatography' means 'colour-writing' but technique is universal"
        },
        "compounds stay still": {
          "error": "Missing the movement principle",
          "fix": "Compounds move at different rates depending on affinity for each phase",
          "action": "More affinity for mobile phase = faster movement"
        },
        "one technique only": {
          "error": "Many chromatography types exist",
          "fix": "TLC, column chromatography, HPLC, GC are all chromatography variants",
          "action": "Same principle, different formats and scales"
        }
      },
      "persistent": {
        "gap": "Not understanding chromatography separation mechanism",
        "action": "Compounds partition between phases; different partition = different speed"
      }
    },
    "natural-products": {
      "name": "Natural Products",
      "formula": null,
      "correct": "Many medicines originate from plants, animals, or microorganisms and require extraction and purification",
      "wrong": {
        "all medicines are synthetic": {
          "error": "Missing natural product sources",
          "fix": "Many important drugs come from nature: aspirin, penicillin, morphine, taxol",
          "action": "Natural products remain important drug sources and templates"
        },
        "natural products are pure as found": {
          "error": "Missing purification requirement",
          "fix": "Natural sources contain mixtures; active compounds must be extracted and purified",
          "action": "Extraction separates from matrix; purification removes other compounds"
        },
        "extraction changes the compound": {
          "error": "Confusing extraction with reaction",
          "fix": "Extraction is physical separation, not chemical transformation",
          "action": "Compound structure unchanged; just moved from plant to solution"
        }
      },
      "persistent": {
        "gap": "Not appreciating natural products as medicine sources",
        "action": "Plants contain active compounds that must be extracted and purified"
      }
    },
    "yield-purity": {
      "name": "Yield vs Purity",
      "formula": null,
      "correct": "Purification often involves trade-off between yield (amount recovered) and purity",
      "wrong": {
        "high yield always means high purity": {
          "error": "These are often opposing factors",
          "fix": "More stringent purification improves purity but may reduce yield",
          "action": "Balance needed: very pure may mean losing some product"
        },
        "impure product is acceptable": {
          "error": "Purity is critical for medicines",
          "fix": "Medicinal products require high purity for safety and efficacy",
          "action": "Impurities can be toxic or reduce effectiveness"
        },
        "yield doesn't matter": {
          "error": "Economic and practical importance of yield",
          "fix": "Low yield makes medicines expensive and unsustainable",
          "action": "Optimise procedures to balance yield and purity"
        }
      },
      "persistent": {
        "gap": "Not considering yield-purity trade-off in purification",
        "action": "Aim for high purity at acceptable yield; repeat extraction if needed"
      }
    },
    "purity-testing": {
      "name": "Purity Assessment",
      "formula": null,
      "correct": "Melting point, chromatography, and spectroscopy can assess product purity",
      "wrong": {
        "visual inspection is sufficient": {
          "error": "Many impurities are invisible",
          "fix": "Analytical techniques required to detect low-level impurities",
          "action": "Use melting point, TLC, HPLC, or spectroscopy for purity testing"
        },
        "single technique proves purity": {
          "error": "Multiple methods improve confidence",
          "fix": "Different techniques detect different types of impurities",
          "action": "Combine methods: melting point + chromatography + spectroscopy"
        },
        "impurities raise melting point": {
          "error": "Opposite effect",
          "fix": "Impurities lower and broaden the melting point range",
          "action": "Sharp melting point near literature value indicates purity"
        }
      },
      "persistent": {
        "gap": "Not using appropriate purity assessment methods",
        "action": "Sharp melting point + single TLC spot + clean spectrum = pure"
      }
    }
  },
  "content": {
    "round1": {
      "extraction": {
        "sentences": [
          {
            "text": "Solvent extraction separates compounds based on their different {0} in two {1} liquids.",
            "questions": [
              {
                "correct": "solubilities",
                "distractors": ["boiling points", "masses", "colours"],
                "concept": "solvent-extraction",
                "tooltip": "Extraction uses solubility differences"
              },
              {
                "correct": "immiscible",
                "distractors": ["miscible", "identical", "gaseous"],
                "concept": "solvent-extraction",
                "tooltip": "Solvents must form separate layers"
              }
            ]
          },
          {
            "text": "The partition coefficient K describes how a compound {0} between two immiscible solvents. A higher K value means the compound prefers the {1} layer.",
            "questions": [
              {
                "correct": "distributes",
                "distractors": ["reacts", "evaporates", "crystallises"],
                "concept": "partition-coefficient",
                "tooltip": "K describes distribution between phases"
              },
              {
                "correct": "organic",
                "distractors": ["aqueous", "gaseous", "solid"],
                "concept": "partition-coefficient",
                "tooltip": "K = [organic]/[aqueous]; high K favours organic"
              }
            ]
          },
          {
            "text": "A separating funnel is used to physically {0} immiscible layers. The {1} layer is drained first through the {2}.",
            "questions": [
              {
                "correct": "separate",
                "distractors": ["mix", "heat", "react"],
                "concept": "separating-funnel",
                "tooltip": "Separating funnel separates liquid layers"
              },
              {
                "correct": "denser",
                "distractors": ["lighter", "coloured", "hotter"],
                "concept": "separating-funnel",
                "tooltip": "Denser layer sinks to bottom"
              },
              {
                "correct": "stopcock",
                "distractors": ["top", "side", "filter"],
                "concept": "separating-funnel",
                "tooltip": "Stopcock at bottom controls drainage"
              }
            ]
          }
        ]
      },
      "purification": {
        "sentences": [
          {
            "text": "Recrystallisation purifies solids by dissolving in {0} solvent and allowing pure crystals to form on {1}.",
            "questions": [
              {
                "correct": "hot",
                "distractors": ["cold", "room temperature", "frozen"],
                "concept": "crystallisation",
                "tooltip": "Hot solvent dissolves the compound"
              },
              {
                "correct": "cooling",
                "distractors": ["heating", "shaking", "filtering"],
                "concept": "crystallisation",
                "tooltip": "Cooling causes crystallisation"
              }
            ]
          },
          {
            "text": "During recrystallisation, {0} remain dissolved while the pure {1} crystallises out.",
            "questions": [
              {
                "correct": "impurities",
                "distractors": ["products", "crystals", "solvents"],
                "concept": "crystallisation",
                "tooltip": "Impurities stay in solution (mother liquor)"
              },
              {
                "correct": "product",
                "distractors": ["solvent", "impurity", "water"],
                "concept": "crystallisation",
                "tooltip": "Pure compound forms crystals"
              }
            ]
          },
          {
            "text": "Chromatography separates compounds based on their different rates of {0} through a {1} phase carried by a {2} phase.",
            "questions": [
              {
                "correct": "movement",
                "distractors": ["reaction", "evaporation", "crystallisation"],
                "concept": "chromatography",
                "tooltip": "Compounds move at different speeds"
              },
              {
                "correct": "stationary",
                "distractors": ["gaseous", "liquid", "solid"],
                "concept": "chromatography",
                "tooltip": "Stationary phase doesn't move"
              },
              {
                "correct": "mobile",
                "distractors": ["stationary", "solid", "frozen"],
                "concept": "chromatography",
                "tooltip": "Mobile phase carries compounds along"
              }
            ]
          }
        ]
      },
      "natural-medicines": {
        "sentences": [
          {
            "text": "Many important medicines originally came from {0} sources such as plants, animals, and {1}.",
            "questions": [
              {
                "correct": "natural",
                "distractors": ["synthetic", "industrial", "artificial"],
                "concept": "natural-products",
                "tooltip": "Nature is a major source of medicines"
              },
              {
                "correct": "microorganisms",
                "distractors": ["minerals", "plastics", "metals"],
                "concept": "natural-products",
                "tooltip": "Bacteria and fungi produce antibiotics"
              }
            ]
          },
          {
            "text": "Natural products must be {0} from the source material and {1} to remove other compounds.",
            "questions": [
              {
                "correct": "extracted",
                "distractors": ["synthesised", "crystallised", "distilled"],
                "concept": "natural-products",
                "tooltip": "Extraction removes compound from source"
              },
              {
                "correct": "purified",
                "distractors": ["mixed", "diluted", "heated"],
                "concept": "natural-products",
                "tooltip": "Purification removes other compounds"
              }
            ]
          },
          {
            "text": "Purification often involves a trade-off between {0} (amount obtained) and {1} (freedom from impurities).",
            "questions": [
              {
                "correct": "yield",
                "distractors": ["cost", "time", "colour"],
                "concept": "yield-purity",
                "tooltip": "Yield = amount of product recovered"
              },
              {
                "correct": "purity",
                "distractors": ["volume", "mass", "colour"],
                "concept": "yield-purity",
                "tooltip": "Purity = absence of impurities"
              }
            ]
          }
        ]
      }
    },
    "round2": {
      "extraction": {
        "sentences": [
          {
            "text": "A chemist extracts caffeine from tea leaves using dichloromethane and water. Caffeine is more soluble in {0} and has a partition coefficient K {1} 1. After shaking, the {2} layer containing caffeine is collected.",
            "questions": [
              {
                "correct": "dichloromethane",
                "distractors": ["water", "ethanol", "acetone"],
                "concept": "solvent-extraction",
                "tooltip": "Caffeine prefers organic solvent"
              },
              {
                "correct": "greater than",
                "distractors": ["less than", "equal to", "negative"],
                "concept": "partition-coefficient",
                "tooltip": "K > 1 means prefers organic layer"
              },
              {
                "correct": "organic",
                "distractors": ["aqueous", "middle", "top"],
                "concept": "separating-funnel",
                "tooltip": "Caffeine is in the DCM layer"
              }
            ]
          },
          {
            "text": "When using a separating funnel with water and dichloromethane (DCM), the {0} layer sinks because DCM is {1} than water. After settling, open the stopcock to drain the {2} layer.",
            "questions": [
              {
                "correct": "DCM",
                "distractors": ["water", "both", "neither"],
                "concept": "separating-funnel",
                "tooltip": "DCM is denser than water (d = 1.33)"
              },
              {
                "correct": "denser",
                "distractors": ["lighter", "hotter", "more polar"],
                "concept": "separating-funnel",
                "tooltip": "Denser liquid sinks to bottom"
              },
              {
                "correct": "bottom",
                "distractors": ["top", "middle", "side"],
                "concept": "separating-funnel",
                "tooltip": "Drain the lower (denser) layer first"
              }
            ]
          },
          {
            "text": "To increase extraction efficiency, the organic layer can be {0} multiple times with fresh aqueous solution. This works because partition is an {1} process.",
            "questions": [
              {
                "correct": "washed",
                "distractors": ["heated", "cooled", "frozen"],
                "concept": "solvent-extraction",
                "tooltip": "Multiple washes improve purity"
              },
              {
                "correct": "equilibrium",
                "distractors": ["irreversible", "instant", "complete"],
                "concept": "partition-coefficient",
                "tooltip": "Partitioning reaches equilibrium each time"
              }
            ]
          }
        ]
      },
      "purification": {
        "sentences": [
          {
            "text": "To recrystallise an impure solid, dissolve it in the {0} amount of hot solvent, filter while {1} to remove insoluble impurities, then cool {2} to allow crystal growth.",
            "questions": [
              {
                "correct": "minimum",
                "distractors": ["maximum", "equal", "excess"],
                "concept": "crystallisation",
                "tooltip": "Use minimum hot solvent to dissolve"
              },
              {
                "correct": "hot",
                "distractors": ["cold", "frozen", "dry"],
                "concept": "crystallisation",
                "tooltip": "Hot filtration removes insoluble material"
              },
              {
                "correct": "slowly",
                "distractors": ["quickly", "instantly", "not at all"],
                "concept": "crystallisation",
                "tooltip": "Slow cooling gives larger, purer crystals"
              }
            ]
          },
          {
            "text": "Column chromatography uses a {0} packed with stationary phase. Compounds with greater affinity for the {1} phase move more {2} through the column.",
            "questions": [
              {
                "correct": "tube",
                "distractors": ["funnel", "beaker", "flask"],
                "concept": "chromatography",
                "tooltip": "Column is a vertical tube"
              },
              {
                "correct": "mobile",
                "distractors": ["stationary", "solid", "packed"],
                "concept": "chromatography",
                "tooltip": "More mobile phase affinity = faster"
              },
              {
                "correct": "quickly",
                "distractors": ["slowly", "not at all", "backwards"],
                "concept": "chromatography",
                "tooltip": "Mobile phase affinity speeds movement"
              }
            ]
          },
          {
            "text": "TLC (thin-layer chromatography) can monitor purification. A {0} spot at the same Rf as the standard indicates the {1} compound is present and relatively {2}.",
            "questions": [
              {
                "correct": "single",
                "distractors": ["multiple", "no", "streaked"],
                "concept": "purity-testing",
                "tooltip": "Single spot suggests one compound"
              },
              {
                "correct": "desired",
                "distractors": ["impure", "unknown", "wrong"],
                "concept": "purity-testing",
                "tooltip": "Matching Rf confirms identity"
              },
              {
                "correct": "pure",
                "distractors": ["impure", "dilute", "unstable"],
                "concept": "purity-testing",
                "tooltip": "Single spot indicates purity"
              }
            ]
          }
        ]
      },
      "natural-medicines": {
        "sentences": [
          {
            "text": "Aspirin was originally derived from {0} bark containing salicin. The active compound was extracted, purified, and later {1} to create the modern drug.",
            "questions": [
              {
                "correct": "willow",
                "distractors": ["oak", "pine", "maple"],
                "concept": "natural-products",
                "tooltip": "Willow bark is source of salicylates"
              },
              {
                "correct": "modified",
                "distractors": ["unchanged", "destroyed", "diluted"],
                "concept": "natural-products",
                "tooltip": "Acetylation improved the compound"
              }
            ]
          },
          {
            "text": "Penicillin is extracted from {0} mold cultures. The antibiotic must be separated from the culture medium and purified before {1} use.",
            "questions": [
              {
                "correct": "Penicillium",
                "distractors": ["Aspergillus", "Yeast", "E. coli"],
                "concept": "natural-products",
                "tooltip": "Penicillium mold produces penicillin"
              },
              {
                "correct": "medicinal",
                "distractors": ["industrial", "agricultural", "research"],
                "concept": "yield-purity",
                "tooltip": "Medicines require high purity"
              }
            ]
          },
          {
            "text": "Purity is assessed by melting point: pure compounds have {0} melting ranges near the {1} value. Impurities cause the melting point to {2}.",
            "questions": [
              {
                "correct": "sharp",
                "distractors": ["broad", "variable", "high"],
                "concept": "purity-testing",
                "tooltip": "Pure compounds melt sharply"
              },
              {
                "correct": "literature",
                "distractors": ["estimated", "unknown", "variable"],
                "concept": "purity-testing",
                "tooltip": "Compare to published values"
              },
              {
                "correct": "decrease and broaden",
                "distractors": ["increase sharply", "stay the same", "disappear"],
                "concept": "purity-testing",
                "tooltip": "Impurities lower and broaden mp"
              }
            ]
          }
        ]
      }
    },
    "round3": {
      "extraction": {
        "sentences": [
          {
            "text": "A research team extracts a potential anticancer compound from marine sponge. The sponge is ground and extracted with {0} solvent. The extract is then subjected to liquid-liquid partition between water and {1}. The non-polar compound preferentially enters the {2} layer.",
            "questions": [
              {
                "correct": "organic",
                "distractors": ["aqueous", "gaseous", "solid"],
                "concept": "solvent-extraction",
                "tooltip": "Initial extraction uses organic solvent"
              },
              {
                "correct": "dichloromethane",
                "distractors": ["more water", "alcohol", "acid"],
                "concept": "separating-funnel",
                "tooltip": "DCM is common partitioning solvent"
              },
              {
                "correct": "organic",
                "distractors": ["aqueous", "middle", "top"],
                "concept": "partition-coefficient",
                "tooltip": "Non-polar compounds prefer organic"
              }
            ]
          },
          {
            "text": "Caffeine extraction from coffee involves: (1) brewing with {0} to dissolve caffeine, (2) partition with DCM to {1} caffeine into organic layer, (3) evaporation to {2} solid caffeine. The partition coefficient determines {3} efficiency.",
            "questions": [
              {
                "correct": "hot water",
                "distractors": ["cold DCM", "acid", "base"],
                "concept": "solvent-extraction",
                "tooltip": "Hot water extracts caffeine from beans"
              },
              {
                "correct": "transfer",
                "distractors": ["destroy", "react", "decompose"],
                "concept": "solvent-extraction",
                "tooltip": "Caffeine partitions into DCM"
              },
              {
                "correct": "isolate",
                "distractors": ["dissolve", "react", "mix"],
                "concept": "solvent-extraction",
                "tooltip": "Evaporation leaves solid caffeine"
              },
              {
                "correct": "extraction",
                "distractors": ["crystallisation", "distillation", "filtration"],
                "concept": "partition-coefficient",
                "tooltip": "K determines how much transfers"
              }
            ]
          }
        ]
      },
      "purification": {
        "sentences": [
          {
            "text": "After extraction, the crude natural product requires purification. Column chromatography separates by {0}, followed by recrystallisation for final {1}. Purity is confirmed by {2} melting point and {3} spectroscopy.",
            "questions": [
              {
                "correct": "polarity",
                "distractors": ["mass", "colour", "charge"],
                "concept": "chromatography",
                "tooltip": "Chromatography separates by polarity"
              },
              {
                "correct": "purification",
                "distractors": ["synthesis", "analysis", "dilution"],
                "concept": "crystallisation",
                "tooltip": "Recrystallisation gives final purity"
              },
              {
                "correct": "sharp",
                "distractors": ["broad", "absent", "variable"],
                "concept": "purity-testing",
                "tooltip": "Sharp mp indicates purity"
              },
              {
                "correct": "NMR",
                "distractors": ["colour", "taste", "smell"],
                "concept": "purity-testing",
                "tooltip": "NMR confirms structure and purity"
              }
            ]
          },
          {
            "text": "Optimising purification requires balancing {0} and {1}. More stringent chromatography improves purity but may {2} yield. The pharmaceutical industry requires high purity even if {3} is affected.",
            "questions": [
              {
                "correct": "yield",
                "distractors": ["time", "cost", "colour"],
                "concept": "yield-purity",
                "tooltip": "Yield = amount recovered"
              },
              {
                "correct": "purity",
                "distractors": ["volume", "speed", "colour"],
                "concept": "yield-purity",
                "tooltip": "Purity = absence of impurities"
              },
              {
                "correct": "decrease",
                "distractors": ["increase", "double", "stabilise"],
                "concept": "yield-purity",
                "tooltip": "Stricter purification may lose product"
              },
              {
                "correct": "yield",
                "distractors": ["colour", "taste", "smell"],
                "concept": "yield-purity",
                "tooltip": "Purity prioritised for safety"
              }
            ]
          }
        ]
      },
      "natural-medicines": {
        "sentences": [
          {
            "text": "Taxol, an anticancer drug from Pacific yew bark, demonstrates natural product challenges: the tree is {0}, extraction yield is {1}, and demand is {2}. This led to development of semi-synthetic and {3} routes.",
            "questions": [
              {
                "correct": "slow-growing",
                "distractors": ["fast-growing", "abundant", "invasive"],
                "concept": "natural-products",
                "tooltip": "Yew trees grow slowly"
              },
              {
                "correct": "low",
                "distractors": ["high", "100%", "variable"],
                "concept": "yield-purity",
                "tooltip": "Only small amounts in bark"
              },
              {
                "correct": "high",
                "distractors": ["low", "zero", "stable"],
                "concept": "natural-products",
                "tooltip": "Cancer treatment demand is high"
              },
              {
                "correct": "synthetic",
                "distractors": ["natural", "biological", "physical"],
                "concept": "natural-products",
                "tooltip": "Total synthesis provides alternative"
              }
            ]
          },
          {
            "text": "Quality control of natural product medicines uses multiple analytical techniques. {0} confirms molecular mass, {1} identifies functional groups, and {2} verifies structure. {3} quantifies the active ingredient concentration.",
            "questions": [
              {
                "correct": "MS",
                "distractors": ["IR", "NMR", "UV"],
                "concept": "purity-testing",
                "tooltip": "MS gives molecular mass"
              },
              {
                "correct": "IR",
                "distractors": ["MS", "NMR", "UV"],
                "concept": "purity-testing",
                "tooltip": "IR shows functional groups"
              },
              {
                "correct": "NMR",
                "distractors": ["MS", "IR", "UV"],
                "concept": "purity-testing",
                "tooltip": "NMR confirms structure"
              },
              {
                "correct": "HPLC",
                "distractors": ["TLC", "column", "extraction"],
                "concept": "purity-testing",
                "tooltip": "HPLC quantifies concentration"
              }
            ]
          }
        ]
      }
    }
  },
  "explanations": {
    "solvent-extraction": "Solvent extraction separates compounds based on different solubilities in immiscible solvents (like dissolves like).",
    "partition-coefficient": "Partition coefficient K = [organic]/[aqueous]; higher K means compound prefers organic layer.",
    "separating-funnel": "Separating funnel allows physical separation of immiscible layers; drain denser layer first.",
    "crystallisation": "Recrystallisation: dissolve in minimum hot solvent, filter hot, cool slowly for pure crystals.",
    "chromatography": "Chromatography separates by differential movement; more mobile phase affinity = faster movement.",
    "natural-products": "Many medicines come from nature; active compounds require extraction and purification.",
    "yield-purity": "Purification involves yield-purity trade-off; medicines require high purity even at yield cost.",
    "purity-testing": "Assess purity by sharp melting point, single TLC spot, clean NMR spectrum, and HPLC analysis."
  }
}
